! Touchstone simulation data from EMX version 2023.1.0
! Thu Apr 24 17:35:10 2025
! EMX was run on gilbert.lte.e-technik.uni-erlangen.de as:
! /opt/emx/EMX_23.10.000/tools.lnx86/emx/bin/64bit/emx
! /home/users/simone/cds_SG13G2_lehre/cds/cdsTECL/ind/ind_d20_w7_sp3_nw1_r10.gds
! ind EMX_proc/sg13_al.proc --cadence-pins=1 --label-depth=0
! --label-snap-distance=0.25 --port=n=n:ng --include=n --port=p=p:pg --include=p
! --log-file=/home/users/simone/cds_SG13G2_lehre/cds/cdsTECL/ind/ind_d20_w7_sp3_nw1_r10_emx.log
! --format=touchstone
! --s-file=/home/users/simone/cds_SG13G2_lehre/cds/cdsTECL/ind/ind_d20_w7_sp3_nw1_r10.snp
! --include-port-order --include-command-line --print-command-line
! --edge-width=0.075 --thickness=0.125 --via-separation=1.2 --3d=*
! --via-sidewall=* --via-inductance=* --quasistatic --sweep 0 500e9
! --sweep-step=2.5e+08 --solve-for-s --parallel=0 --simultaneous-frequencies=0
! --max-memory=50 --print-connectivity
! Port order:
! 1 n (n:ng)
! 2 p (p:pg)
!
! SG13 cross section, version 22 November 2023
! parameters that can be controlled from EMX options line:
! totalthick=300 (total chip thickness, silicon + BEOL)
! ignore_metalsize=0.0 (remove small shapes that are less or equal than this)
! ignore_slotsize=0.0 (remove holes that are less or equal than this)
! via_spacing_factor=1.5 (merge vias that are given multiple of minimum via spacing)
! 
! Known limitations: Rsil, Rppd and Rhigh results are not accurate for small dimensions
# Hz S RI R 50
0.000000e+00 1.084499e-02 0.000000e+00 9.891550e-01 0.000000e+00 9.891550e-01 0.000000e+00 1.084499e-02 0.000000e+00
2.500000e+08 1.085918e-02 1.215081e-03 9.891294e-01 -2.243349e-03 9.891294e-01 -2.243349e-03 1.085920e-02 1.214222e-03
5.000000e+08 1.090198e-02 2.424913e-03 9.890538e-01 -4.474780e-03 9.890538e-01 -4.474780e-03 1.090161e-02 2.422975e-03
7.500000e+08 1.097004e-02 3.622951e-03 9.889344e-01 -6.684629e-03 9.889344e-01 -6.684629e-03 1.096873e-02 3.619961e-03
1.000000e+09 1.105884e-02 4.806183e-03 9.887803e-01 -8.865285e-03 9.887803e-01 -8.865285e-03 1.105609e-02 4.802434e-03
1.250000e+09 1.116319e-02 5.973112e-03 9.886016e-01 -1.101407e-02 9.886016e-01 -1.101407e-02 1.115871e-02 5.969043e-03
1.500000e+09 1.127842e-02 7.123716e-03 9.884071e-01 -1.313233e-02 9.884071e-01 -1.313233e-02 1.127212e-02 7.119756e-03
1.750000e+09 1.140096e-02 8.259916e-03 9.882035e-01 -1.522294e-02 9.882035e-01 -1.522294e-02 1.139290e-02 8.256399e-03
2.000000e+09 1.152859e-02 9.384324e-03 9.879952e-01 -1.728948e-02 9.879952e-01 -1.728948e-02 1.151891e-02 9.381457e-03
2.250000e+09 1.166028e-02 1.049941e-02 9.877848e-01 -1.933566e-02 9.877848e-01 -1.933566e-02 1.164912e-02 1.049729e-02
2.500000e+09 1.179576e-02 1.160714e-02 9.875739e-01 -2.136486e-02 9.875739e-01 -2.136486e-02 1.178323e-02 1.160577e-02
2.750000e+09 1.193514e-02 1.270884e-02 9.873626e-01 -2.337999e-02 9.873626e-01 -2.337999e-02 1.192131e-02 1.270819e-02
3.000000e+09 1.207865e-02 1.380521e-02 9.871509e-01 -2.538347e-02 9.871509e-01 -2.538347e-02 1.206352e-02 1.380521e-02
3.250000e+09 1.222642e-02 1.489645e-02 9.869382e-01 -2.737737e-02 9.869382e-01 -2.737737e-02 1.220997e-02 1.489703e-02
3.500000e+09 1.237862e-02 1.598255e-02 9.867240e-01 -2.936322e-02 9.867240e-01 -2.936322e-02 1.236077e-02 1.598365e-02
3.750000e+09 1.253558e-02 1.706361e-02 9.865082e-01 -3.134200e-02 9.865082e-01 -3.134200e-02 1.251623e-02 1.706518e-02
4.000000e+09 1.269752e-02 1.813969e-02 9.862904e-01 -3.331439e-02 9.862904e-01 -3.331439e-02 1.267657e-02 1.814170e-02
4.250000e+09 1.286458e-02 1.921082e-02 9.860706e-01 -3.528093e-02 9.860706e-01 -3.528093e-02 1.284191e-02 1.921323e-02
4.500000e+09 1.303679e-02 2.027701e-02 9.858487e-01 -3.724205e-02 9.858487e-01 -3.724205e-02 1.301228e-02 2.027981e-02
4.750000e+09 1.321409e-02 2.133831e-02 9.856246e-01 -3.919810e-02 9.856246e-01 -3.919810e-02 1.318760e-02 2.134149e-02
5.000000e+09 1.339635e-02 2.239480e-02 9.853981e-01 -4.114936e-02 9.853981e-01 -4.114936e-02 1.336778e-02 2.239835e-02
5.250000e+09 1.358340e-02 2.344660e-02 9.851692e-01 -4.309605e-02 9.851692e-01 -4.309605e-02 1.355261e-02 2.345051e-02
5.500000e+09 1.377502e-02 2.449387e-02 9.849376e-01 -4.503837e-02 9.849376e-01 -4.503837e-02 1.374190e-02 2.449815e-02
5.750000e+09 1.397094e-02 2.553680e-02 9.847031e-01 -4.697643e-02 9.847031e-01 -4.697643e-02 1.393537e-02 2.554146e-02
6.000000e+09 1.417086e-02 2.657563e-02 9.844656e-01 -4.891033e-02 9.844656e-01 -4.891033e-02 1.413273e-02 2.658068e-02
6.250000e+09 1.437445e-02 2.761061e-02 9.842247e-01 -5.084010e-02 9.842247e-01 -5.084010e-02 1.433366e-02 2.761608e-02
6.500000e+09 1.458153e-02 2.864190e-02 9.839803e-01 -5.276587e-02 9.839803e-01 -5.276587e-02 1.453798e-02 2.864781e-02
6.750000e+09 1.479209e-02 2.966959e-02 9.837324e-01 -5.468783e-02 9.837324e-01 -5.468783e-02 1.474567e-02 2.967596e-02
7.000000e+09 1.500610e-02 3.069372e-02 9.834809e-01 -5.660616e-02 9.834809e-01 -5.660616e-02 1.495672e-02 3.070059e-02
7.250000e+09 1.522357e-02 3.171439e-02 9.832259e-01 -5.852101e-02 9.832259e-01 -5.852101e-02 1.517112e-02 3.172177e-02
7.500000e+09 1.544451e-02 3.273164e-02 9.829673e-01 -6.043252e-02 9.829673e-01 -6.043252e-02 1.538889e-02 3.273957e-02
7.750000e+09 1.566894e-02 3.374556e-02 9.827052e-01 -6.234081e-02 9.827052e-01 -6.234081e-02 1.561005e-02 3.375406e-02
8.000000e+09 1.589689e-02 3.475621e-02 9.824396e-01 -6.424595e-02 9.824396e-01 -6.424595e-02 1.583462e-02 3.476530e-02
8.250000e+09 1.612838e-02 3.576366e-02 9.821705e-01 -6.614804e-02 9.821705e-01 -6.614804e-02 1.606263e-02 3.577337e-02
8.500000e+09 1.636342e-02 3.676795e-02 9.818979e-01 -6.804716e-02 9.818979e-01 -6.804716e-02 1.629410e-02 3.677830e-02
8.750000e+09 1.660199e-02 3.776912e-02 9.816217e-01 -6.994340e-02 9.816217e-01 -6.994340e-02 1.652898e-02 3.778014e-02
9.000000e+09 1.684407e-02 3.876720e-02 9.813420e-01 -7.183684e-02 9.813420e-01 -7.183684e-02 1.676728e-02 3.877890e-02
9.250000e+09 1.708964e-02 3.976222e-02 9.810587e-01 -7.372753e-02 9.810587e-01 -7.372753e-02 1.700895e-02 3.977463e-02
9.500000e+09 1.733867e-02 4.075420e-02 9.807719e-01 -7.561554e-02 9.807719e-01 -7.561554e-02 1.725399e-02 4.076735e-02
9.750000e+09 1.759115e-02 4.174318e-02 9.804814e-01 -7.750092e-02 9.804814e-01 -7.750092e-02 1.750238e-02 4.175709e-02
1.000000e+10 1.784704e-02 4.272918e-02 9.801872e-01 -7.938370e-02 9.801872e-01 -7.938370e-02 1.775407e-02 4.274389e-02
1.025000e+10 1.810633e-02 4.371226e-02 9.798895e-01 -8.126392e-02 9.798895e-01 -8.126392e-02 1.800906e-02 4.372778e-02
1.050000e+10 1.836899e-02 4.469244e-02 9.795881e-01 -8.314160e-02 9.795881e-01 -8.314160e-02 1.826731e-02 4.470881e-02
1.075000e+10 1.863499e-02 4.566977e-02 9.792830e-01 -8.501676e-02 9.792830e-01 -8.501676e-02 1.852881e-02 4.568702e-02
1.100000e+10 1.890430e-02 4.664428e-02 9.789742e-01 -8.688942e-02 9.789742e-01 -8.688942e-02 1.879351e-02 4.666244e-02
1.125000e+10 1.917689e-02 4.761605e-02 9.786618e-01 -8.875957e-02 9.786618e-01 -8.875957e-02 1.906140e-02 4.763514e-02
1.150000e+10 1.945273e-02 4.858510e-02 9.783457e-01 -9.062722e-02 9.783457e-01 -9.062722e-02 1.933244e-02 4.860516e-02
1.175000e+10 1.973180e-02 4.955151e-02 9.780258e-01 -9.249236e-02 9.780258e-01 -9.249236e-02 1.960661e-02 4.957257e-02
1.200000e+10 2.001406e-02 5.051533e-02 9.777023e-01 -9.435499e-02 9.777023e-01 -9.435499e-02 1.988389e-02 5.053742e-02
1.225000e+10 2.029949e-02 5.147662e-02 9.773751e-01 -9.621509e-02 9.773751e-01 -9.621509e-02 2.016423e-02 5.149977e-02
1.250000e+10 2.058806e-02 5.243539e-02 9.770442e-01 -9.807269e-02 9.770442e-01 -9.807269e-02 2.044763e-02 5.245963e-02
1.275000e+10 2.087975e-02 5.339167e-02 9.767096e-01 -9.992783e-02 9.767096e-01 -9.992783e-02 2.073405e-02 5.341703e-02
1.300000e+10 2.117453e-02 5.434545e-02 9.763714e-01 -1.017805e-01 9.763714e-01 -1.017805e-01 2.102348e-02 5.437198e-02
1.325000e+10 2.147238e-02 5.529677e-02 9.760294e-01 -1.036309e-01 9.760294e-01 -1.036309e-01 2.131588e-02 5.532449e-02
1.350000e+10 2.177328e-02 5.624563e-02 9.756837e-01 -1.054788e-01 9.756837e-01 -1.054788e-01 2.161125e-02 5.627458e-02
1.375000e+10 2.207722e-02 5.719205e-02 9.753344e-01 -1.073244e-01 9.753344e-01 -1.073244e-01 2.190955e-02 5.722226e-02
1.400000e+10 2.238416e-02 5.813605e-02 9.749813e-01 -1.091677e-01 9.749813e-01 -1.091677e-01 2.221078e-02 5.816756e-02
1.425000e+10 2.269411e-02 5.907764e-02 9.746246e-01 -1.110086e-01 9.746246e-01 -1.110086e-01 2.251491e-02 5.911048e-02
1.450000e+10 2.300703e-02 6.001683e-02 9.742642e-01 -1.128474e-01 9.742642e-01 -1.128474e-01 2.282194e-02 6.005104e-02
1.475000e+10 2.332292e-02 6.095365e-02 9.739002e-01 -1.146838e-01 9.739002e-01 -1.146838e-01 2.313184e-02 6.098926e-02
1.500000e+10 2.364176e-02 6.188812e-02 9.735325e-01 -1.165181e-01 9.735325e-01 -1.165181e-01 2.344459e-02 6.192516e-02
1.525000e+10 2.396354e-02 6.282024e-02 9.731611e-01 -1.183501e-01 9.731611e-01 -1.183501e-01 2.376020e-02 6.285876e-02
1.550000e+10 2.428825e-02 6.375003e-02 9.727860e-01 -1.201800e-01 9.727860e-01 -1.201800e-01 2.407865e-02 6.379006e-02
1.575000e+10 2.461589e-02 6.467752e-02 9.724074e-01 -1.220077e-01 9.724074e-01 -1.220077e-01 2.439993e-02 6.471910e-02
1.600000e+10 2.494644e-02 6.560271e-02 9.720250e-01 -1.238333e-01 9.720250e-01 -1.238333e-01 2.472403e-02 6.564588e-02
1.625000e+10 2.527989e-02 6.652564e-02 9.716391e-01 -1.256567e-01 9.716391e-01 -1.256567e-01 2.505094e-02 6.657043e-02
1.650000e+10 2.561625e-02 6.744631e-02 9.712495e-01 -1.274780e-01 9.712495e-01 -1.274780e-01 2.538067e-02 6.749276e-02
1.675000e+10 2.595550e-02 6.836474e-02 9.708562e-01 -1.292972e-01 9.708562e-01 -1.292972e-01 2.571320e-02 6.841289e-02
1.700000e+10 2.629765e-02 6.928094e-02 9.704594e-01 -1.311143e-01 9.704594e-01 -1.311143e-01 2.604854e-02 6.933083e-02
1.725000e+10 2.664268e-02 7.019495e-02 9.700589e-01 -1.329293e-01 9.700589e-01 -1.329293e-01 2.638667e-02 7.024661e-02
1.750000e+10 2.699061e-02 7.110677e-02 9.696549e-01 -1.347422e-01 9.696549e-01 -1.347422e-01 2.672761e-02 7.116024e-02
1.775000e+10 2.734144e-02 7.201642e-02 9.692472e-01 -1.365530e-01 9.692472e-01 -1.365530e-01 2.707134e-02 7.207174e-02
1.800000e+10 2.769515e-02 7.292392e-02 9.688360e-01 -1.383618e-01 9.688360e-01 -1.383618e-01 2.741788e-02 7.298113e-02
1.825000e+10 2.805176e-02 7.382928e-02 9.684212e-01 -1.401685e-01 9.684212e-01 -1.401685e-01 2.776723e-02 7.388843e-02
1.850000e+10 2.841126e-02 7.473254e-02 9.680028e-01 -1.419732e-01 9.680028e-01 -1.419732e-01 2.811938e-02 7.479364e-02
1.875000e+10 2.877367e-02 7.563369e-02 9.675808e-01 -1.437758e-01 9.675808e-01 -1.437758e-01 2.847434e-02 7.569680e-02
1.900000e+10 2.913899e-02 7.653276e-02 9.671553e-01 -1.455763e-01 9.671553e-01 -1.455763e-01 2.883213e-02 7.659791e-02
1.925000e+10 2.950721e-02 7.742978e-02 9.667263e-01 -1.473748e-01 9.667263e-01 -1.473748e-01 2.919274e-02 7.749700e-02
1.950000e+10 2.987836e-02 7.832474e-02 9.662937e-01 -1.491712e-01 9.662937e-01 -1.491712e-01 2.955618e-02 7.839409e-02
1.975000e+10 3.025243e-02 7.921769e-02 9.658577e-01 -1.509655e-01 9.658577e-01 -1.509655e-01 2.992246e-02 7.928918e-02
2.000000e+10 3.062944e-02 8.010862e-02 9.654181e-01 -1.527577e-01 9.654181e-01 -1.527577e-01 3.029160e-02 8.018230e-02
2.025000e+10 3.100937e-02 8.099755e-02 9.649751e-01 -1.545479e-01 9.649751e-01 -1.545479e-01 3.066357e-02 8.107345e-02
2.050000e+10 3.139223e-02 8.188449e-02 9.645285e-01 -1.563360e-01 9.645285e-01 -1.563360e-01 3.103839e-02 8.196264e-02
2.075000e+10 3.177800e-02 8.276943e-02 9.640784e-01 -1.581221e-01 9.640784e-01 -1.581221e-01 3.141604e-02 8.284988e-02
2.100000e+10 3.216669e-02 8.365237e-02 9.636249e-01 -1.599061e-01 9.636249e-01 -1.599061e-01 3.179651e-02 8.373516e-02
2.125000e+10 3.255828e-02 8.453333e-02 9.631679e-01 -1.616880e-01 9.631679e-01 -1.616880e-01 3.217981e-02 8.461848e-02
2.150000e+10 3.295277e-02 8.541229e-02 9.627073e-01 -1.634679e-01 9.627073e-01 -1.634679e-01 3.256592e-02 8.549985e-02
2.175000e+10 3.335014e-02 8.628927e-02 9.622433e-01 -1.652458e-01 9.622433e-01 -1.652458e-01 3.295484e-02 8.637928e-02
2.200000e+10 3.375041e-02 8.716426e-02 9.617757e-01 -1.670216e-01 9.617757e-01 -1.670216e-01 3.334657e-02 8.725676e-02
2.225000e+10 3.415355e-02 8.803727e-02 9.613047e-01 -1.687954e-01 9.613047e-01 -1.687954e-01 3.374109e-02 8.813229e-02
2.250000e+10 3.455956e-02 8.890829e-02 9.608301e-01 -1.705671e-01 9.608301e-01 -1.705671e-01 3.413840e-02 8.900587e-02
2.275000e+10 3.496844e-02 8.977732e-02 9.603521e-01 -1.723369e-01 9.603521e-01 -1.723369e-01 3.453850e-02 8.987751e-02
2.300000e+10 3.538018e-02 9.064438e-02 9.598706e-01 -1.741046e-01 9.598706e-01 -1.741046e-01 3.494137e-02 9.074721e-02
2.325000e+10 3.579476e-02 9.150944e-02 9.593855e-01 -1.758703e-01 9.593855e-01 -1.758703e-01 3.534702e-02 9.161496e-02
2.350000e+10 3.621220e-02 9.237252e-02 9.588970e-01 -1.776339e-01 9.588970e-01 -1.776339e-01 3.575543e-02 9.248077e-02
2.375000e+10 3.663246e-02 9.323361e-02 9.584050e-01 -1.793956e-01 9.584050e-01 -1.793956e-01 3.616660e-02 9.334464e-02
2.400000e+10 3.705556e-02 9.409272e-02 9.579095e-01 -1.811552e-01 9.579095e-01 -1.811552e-01 3.658053e-02 9.420656e-02
2.425000e+10 3.748149e-02 9.494984e-02 9.574105e-01 -1.829128e-01 9.574105e-01 -1.829128e-01 3.699720e-02 9.506653e-02
2.450000e+10 3.791023e-02 9.580497e-02 9.569080e-01 -1.846684e-01 9.569080e-01 -1.846684e-01 3.741660e-02 9.592456e-02
2.475000e+10 3.834178e-02 9.665811e-02 9.564020e-01 -1.864220e-01 9.564020e-01 -1.864220e-01 3.783874e-02 9.678064e-02
2.500000e+10 3.877613e-02 9.750926e-02 9.558925e-01 -1.881736e-01 9.558925e-01 -1.881736e-01 3.826361e-02 9.763477e-02
2.525000e+10 3.921328e-02 9.835842e-02 9.553795e-01 -1.899231e-01 9.553795e-01 -1.899231e-01 3.869120e-02 9.848695e-02
2.550000e+10 3.965321e-02 9.920558e-02 9.548630e-01 -1.916707e-01 9.548630e-01 -1.916707e-01 3.912150e-02 9.933719e-02
2.575000e+10 4.009593e-02 1.000507e-01 9.543431e-01 -1.934162e-01 9.543431e-01 -1.934162e-01 3.955450e-02 1.001855e-01
2.600000e+10 4.054142e-02 1.008939e-01 9.538196e-01 -1.951597e-01 9.538196e-01 -1.951597e-01 3.999021e-02 1.010318e-01
2.625000e+10 4.098969e-02 1.017351e-01 9.532927e-01 -1.969012e-01 9.532927e-01 -1.969012e-01 4.042861e-02 1.018762e-01
2.650000e+10 4.144071e-02 1.025743e-01 9.527623e-01 -1.986407e-01 9.527623e-01 -1.986407e-01 4.086969e-02 1.027186e-01
2.675000e+10 4.189449e-02 1.034114e-01 9.522284e-01 -2.003782e-01 9.522284e-01 -2.003782e-01 4.131346e-02 1.035590e-01
2.700000e+10 4.235101e-02 1.042466e-01 9.516911e-01 -2.021137e-01 9.516911e-01 -2.021137e-01 4.175990e-02 1.043975e-01
2.725000e+10 4.281028e-02 1.050797e-01 9.511502e-01 -2.038471e-01 9.511502e-01 -2.038471e-01 4.220900e-02 1.052341e-01
2.750000e+10 4.327228e-02 1.059109e-01 9.506059e-01 -2.055786e-01 9.506059e-01 -2.055786e-01 4.266077e-02 1.060686e-01
2.775000e+10 4.373701e-02 1.067400e-01 9.500581e-01 -2.073080e-01 9.500581e-01 -2.073080e-01 4.311519e-02 1.069012e-01
2.800000e+10 4.420447e-02 1.075671e-01 9.495069e-01 -2.090354e-01 9.495069e-01 -2.090354e-01 4.357225e-02 1.077319e-01
2.825000e+10 4.467464e-02 1.083922e-01 9.489521e-01 -2.107608e-01 9.489521e-01 -2.107608e-01 4.403196e-02 1.085605e-01
2.850000e+10 4.514751e-02 1.092153e-01 9.483939e-01 -2.124842e-01 9.483939e-01 -2.124842e-01 4.449430e-02 1.093872e-01
2.875000e+10 4.562310e-02 1.100364e-01 9.478323e-01 -2.142055e-01 9.478323e-01 -2.142055e-01 4.495928e-02 1.102119e-01
2.900000e+10 4.610137e-02 1.108554e-01 9.472671e-01 -2.159249e-01 9.472671e-01 -2.159249e-01 4.542687e-02 1.110346e-01
2.925000e+10 4.658234e-02 1.116724e-01 9.466985e-01 -2.176422e-01 9.466985e-01 -2.176422e-01 4.589708e-02 1.118554e-01
2.950000e+10 4.706599e-02 1.124874e-01 9.461265e-01 -2.193575e-01 9.461265e-01 -2.193575e-01 4.636989e-02 1.126741e-01
2.975000e+10 4.755232e-02 1.133003e-01 9.455510e-01 -2.210707e-01 9.455510e-01 -2.210707e-01 4.684532e-02 1.134909e-01
3.000000e+10 4.804132e-02 1.141112e-01 9.449720e-01 -2.227819e-01 9.449720e-01 -2.227819e-01 4.732333e-02 1.143057e-01
3.025000e+10 4.853298e-02 1.149200e-01 9.443896e-01 -2.244911e-01 9.443896e-01 -2.244911e-01 4.780394e-02 1.151184e-01
3.050000e+10 4.902731e-02 1.157268e-01 9.438037e-01 -2.261983e-01 9.438037e-01 -2.261983e-01 4.828713e-02 1.159292e-01
3.075000e+10 4.952428e-02 1.165316e-01 9.432144e-01 -2.279034e-01 9.432144e-01 -2.279034e-01 4.877290e-02 1.167380e-01
3.100000e+10 5.002391e-02 1.173342e-01 9.426216e-01 -2.296064e-01 9.426216e-01 -2.296064e-01 4.926125e-02 1.175448e-01
3.125000e+10 5.052617e-02 1.181349e-01 9.420254e-01 -2.313075e-01 9.420254e-01 -2.313075e-01 4.975215e-02 1.183495e-01
3.150000e+10 5.103107e-02 1.189334e-01 9.414257e-01 -2.330064e-01 9.414257e-01 -2.330064e-01 5.024562e-02 1.191523e-01
3.175000e+10 5.153859e-02 1.197299e-01 9.408226e-01 -2.347034e-01 9.408226e-01 -2.347034e-01 5.074164e-02 1.199530e-01
3.200000e+10 5.204874e-02 1.205243e-01 9.402161e-01 -2.363982e-01 9.402161e-01 -2.363982e-01 5.124021e-02 1.207517e-01
3.225000e+10 5.256150e-02 1.213167e-01 9.396061e-01 -2.380910e-01 9.396061e-01 -2.380910e-01 5.174131e-02 1.215484e-01
3.250000e+10 5.307687e-02 1.221070e-01 9.389927e-01 -2.397818e-01 9.389927e-01 -2.397818e-01 5.224495e-02 1.223430e-01
3.275000e+10 5.359485e-02 1.228951e-01 9.383759e-01 -2.414704e-01 9.383759e-01 -2.414704e-01 5.275112e-02 1.231357e-01
3.300000e+10 5.411542e-02 1.236812e-01 9.377557e-01 -2.431571e-01 9.377557e-01 -2.431571e-01 5.325982e-02 1.239263e-01
3.325000e+10 5.463858e-02 1.244652e-01 9.371320e-01 -2.448416e-01 9.371320e-01 -2.448416e-01 5.377102e-02 1.247148e-01
3.350000e+10 5.516432e-02 1.252471e-01 9.365049e-01 -2.465240e-01 9.365049e-01 -2.465240e-01 5.428474e-02 1.255013e-01
3.375000e+10 5.569264e-02 1.260269e-01 9.358744e-01 -2.482044e-01 9.358744e-01 -2.482044e-01 5.480096e-02 1.262858e-01
3.400000e+10 5.622353e-02 1.268045e-01 9.352404e-01 -2.498827e-01 9.352404e-01 -2.498827e-01 5.531967e-02 1.270682e-01
3.425000e+10 5.675699e-02 1.275801e-01 9.346031e-01 -2.515589e-01 9.346031e-01 -2.515589e-01 5.584088e-02 1.278485e-01
3.450000e+10 5.729300e-02 1.283535e-01 9.339624e-01 -2.532330e-01 9.339624e-01 -2.532330e-01 5.636457e-02 1.286268e-01
3.475000e+10 5.783157e-02 1.291248e-01 9.333182e-01 -2.549050e-01 9.333182e-01 -2.549050e-01 5.689074e-02 1.294030e-01
3.500000e+10 5.837268e-02 1.298940e-01 9.326707e-01 -2.565749e-01 9.326707e-01 -2.565749e-01 5.741938e-02 1.301771e-01
3.525000e+10 5.891633e-02 1.306610e-01 9.320197e-01 -2.582427e-01 9.320197e-01 -2.582427e-01 5.795049e-02 1.309492e-01
3.550000e+10 5.946252e-02 1.314259e-01 9.313654e-01 -2.599083e-01 9.313654e-01 -2.599083e-01 5.848405e-02 1.317192e-01
3.575000e+10 6.001123e-02 1.321886e-01 9.307077e-01 -2.615719e-01 9.307077e-01 -2.615719e-01 5.902007e-02 1.324871e-01
3.600000e+10 6.056245e-02 1.329492e-01 9.300466e-01 -2.632333e-01 9.300466e-01 -2.632333e-01 5.955854e-02 1.332529e-01
3.625000e+10 6.111620e-02 1.337077e-01 9.293821e-01 -2.648926e-01 9.293821e-01 -2.648926e-01 6.009944e-02 1.340166e-01
3.650000e+10 6.167244e-02 1.344639e-01 9.287142e-01 -2.665498e-01 9.287142e-01 -2.665498e-01 6.064278e-02 1.347783e-01
3.675000e+10 6.223119e-02 1.352181e-01 9.280430e-01 -2.682048e-01 9.280430e-01 -2.682048e-01 6.118855e-02 1.355378e-01
3.700000e+10 6.279243e-02 1.359700e-01 9.273684e-01 -2.698577e-01 9.273684e-01 -2.698577e-01 6.173673e-02 1.362952e-01
3.725000e+10 6.335615e-02 1.367197e-01 9.266905e-01 -2.715084e-01 9.266905e-01 -2.715084e-01 6.228734e-02 1.370505e-01
3.750000e+10 6.392236e-02 1.374673e-01 9.260091e-01 -2.731570e-01 9.260091e-01 -2.731570e-01 6.284035e-02 1.378037e-01
3.775000e+10 6.449103e-02 1.382127e-01 9.253245e-01 -2.748034e-01 9.253245e-01 -2.748034e-01 6.339576e-02 1.385548e-01
3.800000e+10 6.506218e-02 1.389558e-01 9.246365e-01 -2.764477e-01 9.246365e-01 -2.764477e-01 6.395357e-02 1.393037e-01
3.825000e+10 6.563578e-02 1.396968e-01 9.239451e-01 -2.780898e-01 9.239451e-01 -2.780898e-01 6.451377e-02 1.400505e-01
3.850000e+10 6.621183e-02 1.404356e-01 9.232504e-01 -2.797297e-01 9.232504e-01 -2.797297e-01 6.507635e-02 1.407952e-01
3.875000e+10 6.679034e-02 1.411722e-01 9.225524e-01 -2.813674e-01 9.225524e-01 -2.813674e-01 6.564131e-02 1.415377e-01
3.900000e+10 6.737128e-02 1.419065e-01 9.218510e-01 -2.830029e-01 9.218510e-01 -2.830029e-01 6.620864e-02 1.422781e-01
3.925000e+10 6.795465e-02 1.426386e-01 9.211463e-01 -2.846363e-01 9.211463e-01 -2.846363e-01 6.677833e-02 1.430163e-01
3.950000e+10 6.854045e-02 1.433685e-01 9.204383e-01 -2.862674e-01 9.204383e-01 -2.862674e-01 6.735038e-02 1.437524e-01
3.975000e+10 6.912866e-02 1.440962e-01 9.197270e-01 -2.878963e-01 9.197270e-01 -2.878963e-01 6.792479e-02 1.444863e-01
4.000000e+10 6.971929e-02 1.448216e-01 9.190123e-01 -2.895231e-01 9.190123e-01 -2.895231e-01 6.850154e-02 1.452181e-01
4.025000e+10 7.031233e-02 1.455448e-01 9.182944e-01 -2.911476e-01 9.182944e-01 -2.911476e-01 6.908062e-02 1.459477e-01
4.050000e+10 7.090776e-02 1.462657e-01 9.175732e-01 -2.927699e-01 9.175732e-01 -2.927699e-01 6.966204e-02 1.466751e-01
4.075000e+10 7.150559e-02 1.469844e-01 9.168487e-01 -2.943899e-01 9.168487e-01 -2.943899e-01 7.024579e-02 1.474003e-01
4.100000e+10 7.210580e-02 1.477008e-01 9.161208e-01 -2.960078e-01 9.161208e-01 -2.960078e-01 7.083185e-02 1.481234e-01
4.125000e+10 7.270838e-02 1.484149e-01 9.153897e-01 -2.976233e-01 9.153897e-01 -2.976233e-01 7.142023e-02 1.488442e-01
4.150000e+10 7.331334e-02 1.491268e-01 9.146554e-01 -2.992367e-01 9.146554e-01 -2.992367e-01 7.201092e-02 1.495629e-01
4.175000e+10 7.392067e-02 1.498364e-01 9.139177e-01 -3.008478e-01 9.139177e-01 -3.008478e-01 7.260390e-02 1.502794e-01
4.200000e+10 7.453035e-02 1.505437e-01 9.131768e-01 -3.024566e-01 9.131768e-01 -3.024566e-01 7.319918e-02 1.509936e-01
4.225000e+10 7.514238e-02 1.512487e-01 9.124327e-01 -3.040632e-01 9.124327e-01 -3.040632e-01 7.379675e-02 1.517057e-01
4.250000e+10 7.575675e-02 1.519514e-01 9.116852e-01 -3.056675e-01 9.116852e-01 -3.056675e-01 7.439660e-02 1.524155e-01
4.275000e+10 7.637347e-02 1.526519e-01 9.109346e-01 -3.072695e-01 9.109346e-01 -3.072695e-01 7.499873e-02 1.531232e-01
4.300000e+10 7.699251e-02 1.533500e-01 9.101807e-01 -3.088693e-01 9.101807e-01 -3.088693e-01 7.560313e-02 1.538286e-01
4.325000e+10 7.761388e-02 1.540458e-01 9.094235e-01 -3.104667e-01 9.094235e-01 -3.104667e-01 7.620979e-02 1.545318e-01
4.350000e+10 7.823756e-02 1.547393e-01 9.086632e-01 -3.120619e-01 9.086632e-01 -3.120619e-01 7.681870e-02 1.552327e-01
4.375000e+10 7.886355e-02 1.554305e-01 9.078996e-01 -3.136548e-01 9.078996e-01 -3.136548e-01 7.742987e-02 1.559314e-01
4.400000e+10 7.949185e-02 1.561194e-01 9.071328e-01 -3.152453e-01 9.071328e-01 -3.152453e-01 7.804327e-02 1.566279e-01
4.425000e+10 8.012244e-02 1.568059e-01 9.063628e-01 -3.168336e-01 9.063628e-01 -3.168336e-01 7.865892e-02 1.573221e-01
4.450000e+10 8.075532e-02 1.574901e-01 9.055896e-01 -3.184195e-01 9.055896e-01 -3.184195e-01 7.927680e-02 1.580141e-01
4.475000e+10 8.139048e-02 1.581719e-01 9.048132e-01 -3.200031e-01 9.048132e-01 -3.200031e-01 7.989690e-02 1.587038e-01
4.500000e+10 8.202792e-02 1.588514e-01 9.040336e-01 -3.215844e-01 9.040336e-01 -3.215844e-01 8.051923e-02 1.593913e-01
4.525000e+10 8.266762e-02 1.595286e-01 9.032508e-01 -3.231633e-01 9.032508e-01 -3.231633e-01 8.114376e-02 1.600765e-01
4.550000e+10 8.330959e-02 1.602034e-01 9.024649e-01 -3.247399e-01 9.024649e-01 -3.247399e-01 8.177050e-02 1.607594e-01
4.575000e+10 8.395381e-02 1.608758e-01 9.016757e-01 -3.263142e-01 9.016757e-01 -3.263142e-01 8.239944e-02 1.614400e-01
4.600000e+10 8.460028e-02 1.615459e-01 9.008835e-01 -3.278861e-01 9.008835e-01 -3.278861e-01 8.303058e-02 1.621184e-01
4.625000e+10 8.524899e-02 1.622136e-01 9.000880e-01 -3.294556e-01 9.000880e-01 -3.294556e-01 8.366390e-02 1.627945e-01
4.650000e+10 8.589994e-02 1.628789e-01 8.992894e-01 -3.310228e-01 8.992894e-01 -3.310228e-01 8.429941e-02 1.634683e-01
4.675000e+10 8.655311e-02 1.635418e-01 8.984877e-01 -3.325875e-01 8.984877e-01 -3.325875e-01 8.493709e-02 1.641398e-01
4.700000e+10 8.720850e-02 1.642024e-01 8.976829e-01 -3.341499e-01 8.976829e-01 -3.341499e-01 8.557694e-02 1.648090e-01
4.725000e+10 8.786611e-02 1.648605e-01 8.968749e-01 -3.357100e-01 8.968749e-01 -3.357100e-01 8.621895e-02 1.654759e-01
4.750000e+10 8.852593e-02 1.655163e-01 8.960638e-01 -3.372676e-01 8.960638e-01 -3.372676e-01 8.686312e-02 1.661405e-01
4.775000e+10 8.918794e-02 1.661697e-01 8.952496e-01 -3.388228e-01 8.952496e-01 -3.388228e-01 8.750944e-02 1.668027e-01
4.800000e+10 8.985215e-02 1.668206e-01 8.944323e-01 -3.403756e-01 8.944323e-01 -3.403756e-01 8.815790e-02 1.674627e-01
4.825000e+10 9.051854e-02 1.674692e-01 8.936119e-01 -3.419260e-01 8.936119e-01 -3.419260e-01 8.880850e-02 1.681203e-01
4.850000e+10 9.118712e-02 1.681153e-01 8.927884e-01 -3.434740e-01 8.927884e-01 -3.434740e-01 8.946124e-02 1.687757e-01
4.875000e+10 9.185786e-02 1.687590e-01 8.919619e-01 -3.450196e-01 8.919619e-01 -3.450196e-01 9.011610e-02 1.694286e-01
4.900000e+10 9.253078e-02 1.694003e-01 8.911322e-01 -3.465627e-01 8.911322e-01 -3.465627e-01 9.077308e-02 1.700793e-01
4.925000e+10 9.320585e-02 1.700391e-01 8.902995e-01 -3.481034e-01 8.902995e-01 -3.481034e-01 9.143218e-02 1.707276e-01
4.950000e+10 9.388307e-02 1.706755e-01 8.894638e-01 -3.496416e-01 8.894638e-01 -3.496416e-01 9.209338e-02 1.713736e-01
4.975000e+10 9.456244e-02 1.713095e-01 8.886250e-01 -3.511774e-01 8.886250e-01 -3.511774e-01 9.275669e-02 1.720172e-01
5.000000e+10 9.524395e-02 1.719410e-01 8.877832e-01 -3.527107e-01 8.877832e-01 -3.527107e-01 9.342209e-02 1.726584e-01
5.025000e+10 9.592760e-02 1.725701e-01 8.869383e-01 -3.542416e-01 8.869383e-01 -3.542416e-01 9.408958e-02 1.732974e-01
5.050000e+10 9.661336e-02 1.731967e-01 8.860904e-01 -3.557700e-01 8.860904e-01 -3.557700e-01 9.475915e-02 1.739339e-01
5.075000e+10 9.730125e-02 1.738208e-01 8.852395e-01 -3.572959e-01 8.852395e-01 -3.572959e-01 9.543081e-02 1.745681e-01
5.100000e+10 9.799125e-02 1.744425e-01 8.843856e-01 -3.588194e-01 8.843856e-01 -3.588194e-01 9.610453e-02 1.751999e-01
5.125000e+10 9.868335e-02 1.750618e-01 8.835287e-01 -3.603403e-01 8.835287e-01 -3.603403e-01 9.678032e-02 1.758293e-01
5.150000e+10 9.937756e-02 1.756785e-01 8.826688e-01 -3.618588e-01 8.826688e-01 -3.618588e-01 9.745818e-02 1.764563e-01
5.175000e+10 1.000739e-01 1.762928e-01 8.818059e-01 -3.633747e-01 8.818059e-01 -3.633747e-01 9.813808e-02 1.770810e-01
5.200000e+10 1.007722e-01 1.769046e-01 8.809401e-01 -3.648882e-01 8.809401e-01 -3.648882e-01 9.882004e-02 1.777033e-01
5.225000e+10 1.014727e-01 1.775139e-01 8.800713e-01 -3.663991e-01 8.800713e-01 -3.663991e-01 9.950403e-02 1.783232e-01
5.250000e+10 1.021752e-01 1.781207e-01 8.791995e-01 -3.679075e-01 8.791995e-01 -3.679075e-01 1.001901e-01 1.789406e-01
5.275000e+10 1.028798e-01 1.787250e-01 8.783248e-01 -3.694134e-01 8.783248e-01 -3.694134e-01 1.008781e-01 1.795557e-01
5.300000e+10 1.035865e-01 1.793268e-01 8.774472e-01 -3.709167e-01 8.774472e-01 -3.709167e-01 1.015682e-01 1.801684e-01
5.325000e+10 1.042952e-01 1.799261e-01 8.765666e-01 -3.724175e-01 8.765666e-01 -3.724175e-01 1.022603e-01 1.807786e-01
5.350000e+10 1.050059e-01 1.805230e-01 8.756831e-01 -3.739158e-01 8.756831e-01 -3.739158e-01 1.029544e-01 1.813865e-01
5.375000e+10 1.057187e-01 1.811172e-01 8.747967e-01 -3.754115e-01 8.747967e-01 -3.754115e-01 1.036506e-01 1.819919e-01
5.400000e+10 1.064335e-01 1.817090e-01 8.739075e-01 -3.769046e-01 8.739075e-01 -3.769046e-01 1.043487e-01 1.825949e-01
5.425000e+10 1.071504e-01 1.822983e-01 8.730153e-01 -3.783952e-01 8.730153e-01 -3.783952e-01 1.050488e-01 1.831955e-01
5.450000e+10 1.078693e-01 1.828850e-01 8.721202e-01 -3.798832e-01 8.721202e-01 -3.798832e-01 1.057509e-01 1.837936e-01
5.475000e+10 1.085901e-01 1.834692e-01 8.712223e-01 -3.813686e-01 8.712223e-01 -3.813686e-01 1.064550e-01 1.843893e-01
5.500000e+10 1.093130e-01 1.840509e-01 8.703215e-01 -3.828515e-01 8.703215e-01 -3.828515e-01 1.071611e-01 1.849826e-01
5.525000e+10 1.100379e-01 1.846300e-01 8.694179e-01 -3.843317e-01 8.694179e-01 -3.843317e-01 1.078692e-01 1.855734e-01
5.550000e+10 1.107648e-01 1.852066e-01 8.685114e-01 -3.858094e-01 8.685114e-01 -3.858094e-01 1.085792e-01 1.861617e-01
5.575000e+10 1.114937e-01 1.857806e-01 8.676021e-01 -3.872844e-01 8.676021e-01 -3.872844e-01 1.092912e-01 1.867476e-01
5.600000e+10 1.122245e-01 1.863521e-01 8.666899e-01 -3.887569e-01 8.666899e-01 -3.887569e-01 1.100051e-01 1.873311e-01
5.625000e+10 1.129573e-01 1.869211e-01 8.657750e-01 -3.902267e-01 8.657750e-01 -3.902267e-01 1.107210e-01 1.879120e-01
5.650000e+10 1.136921e-01 1.874875e-01 8.648572e-01 -3.916939e-01 8.648572e-01 -3.916939e-01 1.114388e-01 1.884906e-01
5.675000e+10 1.144289e-01 1.880513e-01 8.639367e-01 -3.931585e-01 8.639367e-01 -3.931585e-01 1.121586e-01 1.890666e-01
5.700000e+10 1.151676e-01 1.886125e-01 8.630134e-01 -3.946204e-01 8.630134e-01 -3.946204e-01 1.128803e-01 1.896402e-01
5.725000e+10 1.159082e-01 1.891712e-01 8.620873e-01 -3.960797e-01 8.620873e-01 -3.960797e-01 1.136039e-01 1.902112e-01
5.750000e+10 1.166508e-01 1.897273e-01 8.611584e-01 -3.975364e-01 8.611584e-01 -3.975364e-01 1.143295e-01 1.907798e-01
5.775000e+10 1.173953e-01 1.902809e-01 8.602268e-01 -3.989904e-01 8.602268e-01 -3.989904e-01 1.150570e-01 1.913459e-01
5.800000e+10 1.181418e-01 1.908318e-01 8.592925e-01 -4.004417e-01 8.592925e-01 -4.004417e-01 1.157863e-01 1.919096e-01
5.825000e+10 1.188902e-01 1.913802e-01 8.583554e-01 -4.018904e-01 8.583554e-01 -4.018904e-01 1.165176e-01 1.924707e-01
5.850000e+10 1.196405e-01 1.919260e-01 8.574156e-01 -4.033364e-01 8.574156e-01 -4.033364e-01 1.172508e-01 1.930293e-01
5.875000e+10 1.203927e-01 1.924692e-01 8.564731e-01 -4.047797e-01 8.564731e-01 -4.047797e-01 1.179859e-01 1.935854e-01
5.900000e+10 1.211468e-01 1.930098e-01 8.555279e-01 -4.062204e-01 8.555279e-01 -4.062204e-01 1.187228e-01 1.941390e-01
5.925000e+10 1.219028e-01 1.935478e-01 8.545800e-01 -4.076583e-01 8.545800e-01 -4.076583e-01 1.194617e-01 1.946901e-01
5.950000e+10 1.226607e-01 1.940832e-01 8.536294e-01 -4.090936e-01 8.536294e-01 -4.090936e-01 1.202024e-01 1.952387e-01