! Touchstone simulation data from EMX version 2023.1.0
! Fri Oct 10 10:18:07 2025
! EMX was run on gilbert.lte.e-technik.uni-erlangen.de as:
! /opt/emx/EMX_23.10.000/tools.lnx86/emx/bin/64bit/emx
! /home/users/simone/cds_SG13G2_lehre/cds/cdsTECL/tf_octa_n/tf_octa_n_d40_w5_sp3_nw2_fs7_f1_r10.gds
! tf_octa_n EMX_proc/sg13_al.proc --cadence-pins=1 --label-depth=0
! --label-snap-distance=0.25 --port=ic=ic:icg --include=ic --port=in=in:ing
! --include=in --port=ip=ip:ipg --include=ip --port=oc=oc:ocg --include=oc
! --port=on=on:ong --include=on --port=op=op:opg --include=op
! --log-file=/home/users/simone/cds_SG13G2_lehre/cds/cdsTECL/tf_octa_n/tf_octa_n_d40_w5_sp3_nw2_fs7_f1_r10_emx.log
! --format=touchstone
! --s-file=/home/users/simone/cds_SG13G2_lehre/cds/cdsTECL/tf_octa_n/tf_octa_n_d40_w5_sp3_nw2_fs7_f1_r10.snp
! --include-port-order --include-command-line --print-command-line
! --edge-width=0.075 --thickness=0.125 --via-separation=1.2 --3d=*
! --via-sidewall=* --via-inductance=* --quasistatic --sweep 0 500e9
! --sweep-step=2.5e+08 --solve-for-s --parallel=0 --simultaneous-frequencies=0
! --max-memory=50 --print-connectivity
! Port order:
! 1 ic (ic:icg)
! 2 in (in:ing)
! 3 ip (ip:ipg)
! 4 oc (oc:ocg)
! 5 on (on:ong)
! 6 op (op:opg)
!
! SG13 cross section, version 22 November 2023
! parameters that can be controlled from EMX options line:
! totalthick=300 (total chip thickness, silicon + BEOL)
! ignore_metalsize=0.0 (remove small shapes that are less or equal than this)
! ignore_slotsize=0.0 (remove holes that are less or equal than this)
! via_spacing_factor=1.5 (merge vias that are given multiple of minimum via spacing)
! 
! Known limitations: Rsil, Rppd and Rhigh results are not accurate for small dimensions
# Hz S RI R 50
0.000000e+00 1.722875e-02 0.000000e+00 4.167303e-06 0.000000e+00 -6.695314e-17 -0.000000e+00 -4.167303e-06 0.000000e+00
 -7.084047e-17 0.000000e+00 9.827713e-01 0.000000e+00
 4.167303e-06 0.000000e+00 1.722888e-02 0.000000e+00 -6.548850e-17 -0.000000e+00 9.827711e-01 0.000000e+00
 -6.776029e-17 0.000000e+00 -4.167303e-06 0.000000e+00
 -6.695314e-17 -0.000000e+00 -6.548850e-17 0.000000e+00 1.000000e+00 0.000000e+00 -6.707055e-17 0.000000e+00
 -2.150317e-17 0.000000e+00 -6.600974e-17 0.000000e+00
 -4.167303e-06 0.000000e+00 9.827711e-01 0.000000e+00 -6.707055e-17 0.000000e+00 1.722888e-02 0.000000e+00
 -6.867425e-17 0.000000e+00 4.167303e-06 0.000000e+00
 -7.084047e-17 -0.000000e+00 -6.776029e-17 0.000000e+00 -2.150317e-17 0.000000e+00 -6.867425e-17 0.000000e+00
 1.000000e+00 0.000000e+00 -6.894508e-17 0.000000e+00
 9.827713e-01 0.000000e+00 -4.167303e-06 0.000000e+00 -6.600974e-17 -0.000000e+00 4.167303e-06 0.000000e+00
 -6.894508e-17 0.000000e+00 1.722875e-02 0.000000e+00
2.500000e+08 1.724245e-02 -8.852019e-04 -5.698192e-06 1.803127e-03 -2.087832e-06 3.992155e-04 4.611686e-05 3.893017e-03
 9.653031e-07 8.413530e-04 9.826718e-01 -7.597740e-03
 -5.698192e-06 1.803127e-03 1.723108e-02 -9.124688e-04 9.066062e-06 8.346511e-04 9.826717e-01 -7.597879e-03
 3.818321e-06 4.036875e-04 4.011244e-05 3.911802e-03
 -2.087832e-06 3.992155e-04 9.066062e-06 8.346511e-04 9.999787e-01 -3.156511e-03 9.691305e-07 8.413688e-04
 4.038588e-06 2.940526e-05 3.820730e-06 4.037271e-04
 4.611686e-05 3.893017e-03 9.826717e-01 -7.597879e-03 9.691305e-07 8.413688e-04 1.724256e-02 -8.854512e-04
 -2.091957e-06 3.993181e-04 -5.640495e-06 1.803190e-03
 9.653031e-07 8.413530e-04 3.818321e-06 4.036875e-04 4.038588e-06 2.940526e-05 -2.091957e-06 3.993181e-04
 9.999787e-01 -3.156451e-03 9.073599e-06 8.345248e-04
 9.826718e-01 -7.597740e-03 4.011244e-05 3.911802e-03 3.820730e-06 4.037271e-04 -5.640495e-06 1.803190e-03
 9.073599e-06 8.345248e-04 1.723088e-02 -9.123771e-04
5.000000e+08 1.728438e-02 -1.776797e-03 -3.193149e-05 3.624151e-03 -8.696676e-06 7.979142e-04 1.956506e-04 7.775558e-03
 4.025258e-06 1.682464e-03 9.823802e-01 -1.516095e-02
 -3.193149e-05 3.624151e-03 1.723865e-02 -1.829315e-03 3.621559e-05 1.667895e-03 9.823800e-01 -1.516120e-02
 1.472381e-05 8.059398e-04 1.718455e-04 7.814367e-03
 -8.696676e-06 7.979142e-04 3.621559e-05 1.667895e-03 9.999188e-01 -6.300408e-03 3.986017e-06 1.682485e-03
 1.398177e-05 5.354284e-05 1.480692e-05 8.060145e-04
 1.956506e-04 7.775558e-03 9.823800e-01 -1.516120e-02 3.986017e-06 1.682485e-03 1.728441e-02 -1.777264e-03
 -8.648195e-06 7.981238e-04 -3.176164e-05 3.624157e-03
 4.025258e-06 1.682464e-03 1.472381e-05 8.059398e-04 1.398177e-05 5.354284e-05 -8.648195e-06 7.981238e-04
 9.999188e-01 -6.300275e-03 3.617680e-05 1.667635e-03
 9.823802e-01 -1.516095e-02 1.718455e-04 7.814367e-03 1.480692e-05 8.060145e-04 -3.176164e-05 3.624157e-03
 3.617680e-05 1.667635e-03 1.723832e-02 -1.828952e-03
7.500000e+08 1.735159e-02 -2.687377e-03 -6.444216e-05 5.476430e-03 -2.039156e-05 1.196296e-03 4.383579e-04 1.163651e-02
 9.261398e-06 2.523158e-03 9.819134e-01 -2.266586e-02
 -6.444216e-05 5.476430e-03 1.724944e-02 -2.761171e-03 8.103694e-05 2.498632e-03 9.819131e-01 -2.266609e-02
 3.175886e-05 1.206241e-03 3.856296e-04 1.169778e-02
 -2.039156e-05 1.196296e-03 8.103694e-05 2.498632e-03 9.998274e-01 -9.427404e-03 9.133058e-06 2.523213e-03
 2.608908e-05 7.116142e-05 3.196557e-05 1.206283e-03
 4.383579e-04 1.163651e-02 9.819131e-01 -2.266609e-02 9.133058e-06 2.523213e-03 1.735149e-02 -2.688077e-03
 -2.025999e-05 1.196570e-03 -6.422715e-05 5.476286e-03
 9.261398e-06 2.523158e-03 3.175886e-05 1.206241e-03 2.608908e-05 7.116142e-05 -2.025999e-05 1.196570e-03
 9.998274e-01 -9.427195e-03 8.092430e-05 2.498277e-03
 9.819134e-01 -2.266586e-02 3.856296e-04 1.169778e-02 3.196557e-05 1.206283e-03 -6.422715e-05 5.476286e-03
 8.092430e-05 2.498277e-03 1.724913e-02 -2.760365e-03
1.000000e+09 1.744010e-02 -3.624260e-03 -8.780651e-05 7.368857e-03 -3.775895e-05 1.594863e-03 7.665120e-04 1.547020e-02
 1.638269e-05 3.362840e-03 9.812966e-01 -3.009447e-02
 -8.780651e-05 7.368857e-03 1.726082e-02 -3.713857e-03 1.426296e-04 3.325586e-03 9.812963e-01 -3.009463e-02
 5.385960e-05 1.604562e-03 6.748341e-04 1.555698e-02
 -3.775895e-05 1.594863e-03 1.426296e-04 3.325586e-03 9.997141e-01 -1.253458e-02 1.614817e-05 3.362983e-03
 3.636338e-05 8.279840e-05 5.417768e-05 1.604501e-03
 7.665120e-04 1.547020e-02 9.812963e-01 -3.009463e-02 1.614817e-05 3.362983e-03 1.743978e-02 -3.625162e-03
 -3.754745e-05 1.595156e-03 -8.764972e-05 7.368545e-03
 1.638269e-05 3.362840e-03 5.385960e-05 1.604562e-03 3.636338e-05 8.279840e-05 -3.754745e-05 1.595156e-03
 9.997142e-01 -1.253431e-02 1.424442e-04 3.325175e-03
 9.812966e-01 -3.009447e-02 6.748341e-04 1.555698e-02 5.417768e-05 1.604501e-03 -8.764972e-05 7.368545e-03
 1.424442e-04 3.325175e-03 1.726078e-02 -3.712611e-03
1.250000e+09 1.754241e-02 -4.592642e-03 -8.646432e-05 9.303335e-03 -6.096122e-05 1.994306e-03 1.171579e-03 1.927458e-02
 2.494397e-05 4.201104e-03 9.805542e-01 -3.743913e-02
 -8.646432e-05 9.303335e-03 1.726683e-02 -4.691744e-03 2.199216e-04 4.147883e-03 9.805540e-01 -3.743928e-02
 8.034218e-05 2.001250e-03 1.032027e-03 1.938994e-02
 -6.096122e-05 1.994306e-03 2.199216e-04 4.147883e-03 9.995858e-01 -1.562253e-02 2.461950e-05 4.201388e-03
 4.282988e-05 9.026210e-05 8.072603e-05 2.001040e-03
 1.171579e-03 1.927458e-02 9.805540e-01 -3.743928e-02 2.461950e-05 4.201388e-03 1.754178e-02 -4.593644e-03
 -6.069514e-05 1.994587e-03 -8.645238e-05 9.302903e-03
 2.494397e-05 4.201104e-03 8.034218e-05 2.001250e-03 4.282988e-05 9.026210e-05 -6.069514e-05 1.994587e-03
 9.995859e-01 -1.562221e-02 2.196846e-04 4.147446e-03
 9.805542e-01 -3.743913e-02 1.032027e-03 1.938994e-02 8.072603e-05 2.001040e-03 -8.645238e-05 9.302903e-03
 2.196846e-04 4.147446e-03 1.726725e-02 -4.690219e-03
1.500000e+09 1.764939e-02 -5.595085e-03 -4.758372e-05 1.127617e-02 -8.982705e-05 2.395230e-03 1.645798e-03 2.305031e-02
 3.448798e-05 5.037819e-03 9.797066e-01 -4.470005e-02
 -4.758372e-05 1.127617e-02 1.725974e-02 -5.697130e-03 3.118763e-04 4.965118e-03 9.797067e-01 -4.470030e-02
 1.108872e-04 2.396739e-03 1.450287e-03 2.319699e-02
 -8.982705e-05 2.395230e-03 3.118763e-04 4.965118e-03 9.994463e-01 -1.869343e-02 3.411201e-05 5.038278e-03
 4.510793e-05 9.527778e-05 1.112820e-04 2.396366e-03
 1.645798e-03 2.305031e-02 9.797067e-01 -4.470030e-02 3.411201e-05 5.038278e-03 1.764845e-02 -5.596054e-03
 -8.953924e-05 2.395491e-03 -4.776090e-05 1.127570e-02
 3.448798e-05 5.037819e-03 1.108872e-04 2.396739e-03 4.510793e-05 9.527778e-05 -8.953924e-05 2.395491e-03
 9.994464e-01 -1.869306e-02 3.116184e-04 4.964667e-03
 9.797066e-01 -4.470005e-02 1.450287e-03 2.319699e-02 1.112820e-04 2.396366e-03 -4.776090e-05 1.127570e-02
 3.116184e-04 4.964667e-03 1.726069e-02 -5.695559e-03
1.750000e+09 1.775241e-02 -6.631822e-03 3.789839e-05 1.328040e-02 -1.240417e-04 2.798066e-03 2.183180e-03 2.679971e-02
 4.460909e-05 5.873064e-03 9.787698e-01 -5.188218e-02
 3.789839e-05 1.328040e-02 1.723199e-02 -6.730332e-03 4.176001e-04 5.777234e-03 9.787700e-01 -5.188265e-02
 1.454081e-04 2.791417e-03 1.924101e-03 2.697992e-02
 -1.240417e-04 2.798066e-03 4.176001e-04 5.777234e-03 9.992979e-01 -2.174987e-02 4.422730e-05 5.873710e-03
 4.354668e-05 9.907194e-05 1.457665e-04 2.790891e-03
 2.183180e-03 2.679971e-02 9.787700e-01 -5.188265e-02 4.422730e-05 5.873710e-03 1.775124e-02 -6.632645e-03
 -1.237605e-04 2.798313e-03 3.753198e-05 1.327997e-02
 4.460909e-05 5.873064e-03 1.454081e-04 2.791417e-03 4.354668e-05 9.907194e-05 -1.237605e-04 2.798313e-03
 9.992980e-01 -2.174947e-02 4.173501e-04 5.776763e-03
 9.787698e-01 -5.188218e-02 1.924101e-03 2.697992e-02 1.457665e-04 2.790891e-03 3.753198e-05 1.327997e-02
 4.173501e-04 5.776763e-03 1.723340e-02 -6.728925e-03
2.000000e+09 1.784414e-02 -7.701858e-03 1.753218e-04 1.530778e-02 -1.632602e-04 3.203087e-03 2.779610e-03 3.052556e-02
 5.498695e-05 6.707081e-03 9.777551e-01 -5.899313e-02
 1.753218e-04 1.530778e-02 1.717690e-02 -7.790559e-03 5.363922e-04 6.584421e-03 9.777554e-01 -5.899388e-02
 1.839609e-04 3.185586e-03 2.449495e-03 3.074103e-02
 -1.632602e-04 3.203087e-03 5.363922e-04 6.584421e-03 9.991417e-01 -2.479462e-02 5.463936e-05 6.707906e-03
 3.875633e-05 1.024335e-04 1.842524e-04 3.184935e-03
 2.779610e-03 3.052556e-02 9.777554e-01 -5.899388e-02 5.463936e-05 6.707906e-03 1.784282e-02 -7.702471e-03
 -1.630026e-04 3.203340e-03 1.747992e-04 1.530747e-02
 5.498695e-05 6.707081e-03 1.839609e-04 3.185586e-03 3.875633e-05 1.024335e-04 -1.630026e-04 3.203340e-03
 9.991419e-01 -2.479419e-02 5.361698e-04 6.583912e-03
 9.777551e-01 -5.899313e-02 2.449495e-03 3.074103e-02 1.842524e-04 3.184935e-03 1.747992e-04 1.530747e-02
 5.361698e-04 6.583912e-03 1.717864e-02 -7.789450e-03
2.250000e+09 1.791863e-02 -8.803921e-03 3.670161e-04 1.735007e-02 -2.071638e-04 3.610459e-03 3.432537e-03 3.423035e-02
 6.539216e-05 7.540237e-03 9.766703e-01 -6.604164e-02
 3.670161e-04 1.735007e-02 1.708891e-02 -8.876727e-03 6.677458e-04 7.387030e-03 9.766705e-01 -6.604268e-02
 2.266845e-04 3.579464e-03 3.023795e-03 3.448244e-02
 -2.071638e-04 3.610459e-03 6.677458e-04 7.387030e-03 9.989782e-01 -2.783065e-02 6.510548e-05 7.541218e-03
 3.138411e-05 1.058709e-04 2.268965e-04 3.578718e-03
 3.432537e-03 3.423035e-02 9.766705e-01 -6.604268e-02 6.510548e-05 7.541218e-03 1.791729e-02 -8.804323e-03
 -2.069342e-04 3.610739e-03 3.663889e-04 1.734991e-02
 6.539216e-05 7.540237e-03 2.266845e-04 3.579464e-03 3.138411e-05 1.058709e-04 -2.069342e-04 3.610739e-03
 9.989784e-01 -2.783019e-02 6.675585e-04 7.386463e-03
 9.766703e-01 -6.604164e-02 3.023795e-03 3.448244e-02 2.268965e-04 3.578718e-03 3.663889e-04 1.734991e-02
 6.675585e-04 7.386463e-03 1.709083e-02 -8.875959e-03
2.500000e+09 1.797141e-02 -9.936224e-03 6.133609e-04 1.940009e-02 -2.555140e-04 4.020283e-03 4.140677e-03 3.791628e-02
 7.567705e-05 8.372902e-03 9.755204e-01 -7.303599e-02
 6.133609e-04 1.940009e-02 1.696370e-02 -9.987140e-03 8.113224e-04 8.185423e-03 9.755205e-01 -7.303727e-02
 2.737271e-04 3.973190e-03 3.645452e-03 3.820615e-02
 -2.555140e-04 4.020283e-03 8.113224e-04 8.185423e-03 9.988077e-01 -3.086053e-02 7.546355e-05 8.374013e-03
 2.191840e-05 1.096641e-04 2.738616e-04 3.972378e-03
 4.140677e-03 3.791628e-02 9.755205e-01 -7.303727e-02 7.546355e-05 8.374013e-03 1.797011e-02 -9.936456e-03
 -2.553068e-04 4.020608e-03 6.126854e-04 1.940010e-02
 7.567705e-05 8.372902e-03 2.737271e-04 3.973190e-03 2.191840e-05 1.096641e-04 -2.553068e-04 4.020608e-03
 9.988079e-01 -3.086004e-02 8.111673e-04 8.184778e-03
 9.755204e-01 -7.303599e-02 3.645452e-03 3.820615e-02 2.738616e-04 3.972378e-03 6.126854e-04 1.940010e-02
 8.111673e-04 8.184778e-03 1.696566e-02 -9.986687e-03
2.750000e+09 1.799955e-02 -1.109532e-02 9.138629e-04 2.145256e-02 -3.081979e-04 4.432632e-03 4.903860e-03 4.158579e-02
 8.574618e-05 9.205266e-03 9.743091e-01 -7.998212e-02
 9.138629e-04 2.145256e-02 1.679845e-02 -1.111837e-02 9.669014e-04 8.979758e-03 9.743090e-01 -7.998357e-02
 3.251733e-04 4.366850e-03 4.314039e-03 4.191444e-02
 -3.081979e-04 4.432632e-03 9.669014e-04 8.979758e-03 9.986305e-01 -3.388544e-02 8.560777e-05 9.206483e-03
 1.052626e-05 1.138356e-04 3.252401e-04 4.365992e-03
 4.903860e-03 4.158579e-02 9.743090e-01 -7.998357e-02 8.560777e-05 9.206483e-03 1.799835e-02 -1.109545e-02
 -3.080021e-04 4.433014e-03 9.131921e-04 2.145274e-02
 8.574618e-05 9.205266e-03 3.251733e-04 4.366850e-03 1.052626e-05 1.138356e-04 -3.080021e-04 4.433014e-03
 9.986307e-01 -3.388491e-02 9.667690e-04 8.979020e-03
 9.743091e-01 -7.998212e-02 4.314039e-03 4.191444e-02 3.252401e-04 4.365992e-03 9.131921e-04 2.145274e-02
 9.667690e-04 8.979020e-03 1.680037e-02 -1.111817e-02
3.000000e+09 1.800097e-02 -1.227767e-02 1.267432e-03 2.350340e-02 -3.651532e-04 4.847588e-03 5.722445e-03 4.524086e-02
 9.554187e-05 1.003748e-02 9.730389e-01 -8.688492e-02
 1.267432e-03 2.350340e-02 1.659115e-02 -1.226682e-02 1.134348e-03 9.770123e-03 9.730386e-01 -8.688647e-02
 3.810969e-04 4.760501e-03 5.029665e-03 4.560924e-02
 -3.651532e-04 4.847588e-03 1.134348e-03 9.770123e-03 9.984469e-01 -3.690616e-02 9.547361e-05 1.003878e-02
 -2.701096e-06 1.183447e-04 3.811093e-04 4.759611e-03
 5.722445e-03 4.524086e-02 9.730386e-01 -8.688647e-02 9.547361e-05 1.003878e-02 1.799987e-02 -1.227776e-02
 -3.649555e-04 4.848032e-03 1.266811e-03 2.350372e-02
 9.554187e-05 1.003748e-02 3.810969e-04 4.760501e-03 -2.701096e-06 1.183447e-04 -3.649555e-04 4.848032e-03
 9.984471e-01 -3.690560e-02 1.134225e-03 9.769282e-03
 9.730389e-01 -8.688492e-02 5.029665e-03 4.560924e-02 3.811093e-04 4.759611e-03 1.266811e-03 2.350372e-02
 1.134225e-03 9.769282e-03 1.659299e-02 -1.226680e-02
3.250000e+09 1.797409e-02 -1.347992e-02 1.672649e-03 2.554940e-02 -4.263445e-04 5.265243e-03 6.597014e-03 4.888298e-02
 1.050424e-04 1.086967e-02 9.717110e-01 -9.374855e-02
 1.672649e-03 2.554940e-02 1.634027e-02 -1.342900e-02 1.313595e-03 1.055657e-02 9.717106e-01 -9.375015e-02
 4.415681e-04 5.154179e-03 5.792675e-03 4.929205e-02
 -4.263445e-04 5.265243e-03 1.313595e-03 1.055657e-02 9.982569e-01 -3.992336e-02 1.050356e-04 1.087104e-02
 -1.769433e-05 1.231266e-04 4.415398e-04 5.153262e-03
 6.597014e-03 4.888298e-02 9.717106e-01 -9.375015e-02 1.050356e-04 1.087104e-02 1.797307e-02 -1.348002e-02
 -4.261323e-04 5.265751e-03 1.672113e-03 2.554985e-02
 1.050424e-04 1.086967e-02 4.415681e-04 5.154179e-03 -1.769433e-05 1.231266e-04 -4.261323e-04 5.265751e-03
 9.982571e-01 -3.992276e-02 1.313469e-03 1.055562e-02
 9.717110e-01 -9.374855e-02 5.792675e-03 4.929205e-02 4.415398e-04 5.153262e-03 1.672113e-03 2.554985e-02
 1.313469e-03 1.055562e-02 1.634202e-02 -1.342910e-02
3.500000e+09 1.791760e-02 -1.469898e-02 2.127954e-03 2.758808e-02 -4.917552e-04 5.685704e-03 7.528210e-03 5.251325e-02
 1.142608e-04 1.170195e-02 9.703261e-01 -1.005765e-01
 2.127954e-03 2.758808e-02 1.604456e-02 -1.460163e-02 1.504636e-03 1.133910e-02 9.703256e-01 -1.005781e-01
 5.066513e-04 5.547900e-03 6.603500e-03 5.296402e-02
 -4.917552e-04 5.685704e-03 1.504636e-03 1.133910e-02 9.980602e-01 -4.293756e-02 1.143057e-04 1.170339e-02
 -3.439341e-05 1.280989e-04 5.065944e-04 5.546959e-03
 7.528210e-03 5.251325e-02 9.703256e-01 -1.005781e-01 1.143057e-04 1.170339e-02 1.791662e-02 -1.469912e-02
 -4.915175e-04 5.686273e-03 2.127527e-03 2.758862e-02
 1.142608e-04 1.170195e-02 5.066513e-04 5.547900e-03 -3.439341e-05 1.280989e-04 -4.915175e-04 5.686273e-03
 9.980604e-01 -4.293691e-02 1.504493e-03 1.133804e-02
 9.703261e-01 -1.005765e-01 6.603500e-03 5.296402e-02 5.065944e-04 5.546959e-03 2.127527e-03 2.758862e-02
 1.504493e-03 1.133804e-02 1.604623e-02 -1.460181e-02
3.750000e+09 1.783035e-02 -1.593195e-02 2.631745e-03 2.961751e-02 -5.613795e-04 6.109090e-03 8.516637e-03 5.613243e-02
 1.232448e-04 1.253444e-02 9.688841e-01 -1.073716e-01
 2.631745e-03 2.961751e-02 1.570292e-02 -1.578159e-02 1.707514e-03 1.211769e-02 9.688835e-01 -1.073732e-01
 5.764055e-04 5.941669e-03 7.462562e-03 5.662605e-02
 -5.613795e-04 6.109090e-03 1.707514e-03 1.211769e-02 9.978566e-01 -4.594918e-02 1.233320e-04 1.253593e-02
 -5.273826e-05 1.331655e-04 5.763292e-04 5.940701e-03
 8.516637e-03 5.613243e-02 9.688835e-01 -1.073732e-01 1.233320e-04 1.253593e-02 1.782936e-02 -1.593214e-02
 -5.611082e-04 6.109714e-03 2.631440e-03 2.961811e-02
 1.232448e-04 1.253444e-02 5.764055e-04 5.941669e-03 -5.273826e-05 1.331655e-04 -5.611082e-04 6.109714e-03
 9.978569e-01 -4.594850e-02 1.707344e-03 1.211653e-02
 9.688841e-01 -1.073716e-01 7.462562e-03 5.662605e-02 5.763292e-04 5.940701e-03 2.631440e-03 2.961811e-02
 1.707344e-03 1.211653e-02 1.570452e-02 -1.578184e-02
4.000000e+09 1.771118e-02 -1.717617e-02 3.182427e-03 3.163620e-02 -6.352182e-04 6.535529e-03 9.562808e-03 5.974105e-02
 1.320754e-04 1.336721e-02 9.673843e-01 -1.141362e-01
 3.182427e-03 3.163620e-02 1.531429e-02 -1.696595e-02 1.922315e-03 1.289227e-02 9.673837e-01 -1.141379e-01
 6.508841e-04 6.335475e-03 8.370226e-03 6.027880e-02
 -6.352182e-04 6.535529e-03 1.922315e-03 1.289227e-02 9.976455e-01 -4.895859e-02 1.321972e-04 1.336876e-02
 -7.266174e-05 1.382186e-04 6.507950e-04 6.334476e-03
 9.562808e-03 5.974105e-02 9.673837e-01 -1.141379e-01 1.321972e-04 1.336876e-02 1.771017e-02 -1.717638e-02
 -6.349077e-04 6.536204e-03 3.182249e-03 3.163682e-02
 1.320754e-04 1.336721e-02 6.508841e-04 6.335475e-03 -7.266174e-05 1.382186e-04 -6.349077e-04 6.536204e-03
 9.976457e-01 -4.895786e-02 1.922111e-03 1.289101e-02
 9.673843e-01 -1.141362e-01 8.370226e-03 6.027880e-02 6.507950e-04 6.334476e-03 3.182249e-03 3.163682e-02
 1.922111e-03 1.289101e-02 1.531584e-02 -1.696625e-02
4.250000e+09 1.755894e-02 -1.842914e-02 3.778440e-03 3.364294e-02 -7.132745e-04 6.965162e-03 1.066713e-02 6.333940e-02
 1.408649e-04 1.420033e-02 9.658257e-01 -1.208723e-01
 3.778440e-03 3.364294e-02 1.487761e-02 -1.815188e-02 2.149165e-03 1.366275e-02 9.658250e-01 -1.208740e-01
 7.301373e-04 6.729303e-03 9.326775e-03 6.392281e-02
 -7.132745e-04 6.965162e-03 2.149165e-03 1.366275e-02 9.974259e-01 -5.196605e-02 1.410157e-04 1.420195e-02
 -9.408565e-05 1.431420e-04 7.300387e-04 6.728266e-03
 1.066713e-02 6.333940e-02 9.658250e-01 -1.208740e-01 1.410157e-04 1.420195e-02 1.755789e-02 -1.842935e-02
 -7.129211e-04 6.965879e-03 3.778383e-03 3.364355e-02
 1.408649e-04 1.420033e-02 7.301373e-04 6.729303e-03 -9.408565e-05 1.431420e-04 -7.129211e-04 6.965879e-03
 9.974261e-01 -5.196528e-02 2.148922e-03 1.366139e-02
 9.658257e-01 -1.208723e-01 9.326775e-03 6.392281e-02 7.300387e-04 6.728266e-03 3.778383e-03 3.364355e-02
 2.148922e-03 1.366139e-02 1.487910e-02 -1.815224e-02
4.500000e+09 1.737293e-02 -1.968869e-02 4.418467e-03 3.563663e-02 -7.955441e-04 7.398146e-03 1.183010e-02 6.692751e-02
 1.496846e-04 1.503388e-02 9.642072e-01 -1.275815e-01
 4.418467e-03 3.563663e-02 1.439227e-02 -1.933694e-02 2.388152e-03 1.442901e-02 9.642065e-01 -1.275832e-01
 8.142208e-04 7.123142e-03 1.033259e-02 6.755830e-02
 -7.955441e-04 7.398146e-03 2.388152e-03 1.442901e-02 9.971974e-01 -5.497190e-02 1.498605e-04 1.503556e-02
 -1.169588e-04 1.478694e-04 8.141141e-04 7.122062e-03
 1.183010e-02 6.692751e-02 9.642065e-01 -1.275832e-01 1.498605e-04 1.503556e-02 1.737184e-02 -1.968888e-02
 -7.951460e-04 7.398902e-03 4.418521e-03 3.563722e-02
 1.496846e-04 1.503388e-02 8.142208e-04 7.123142e-03 -1.169588e-04 1.478694e-04 -7.951460e-04 7.398902e-03
 9.971976e-01 -5.497108e-02 2.387866e-03 1.442756e-02
 9.642072e-01 -1.275815e-01 1.033259e-02 6.755830e-02 8.141141e-04 7.122062e-03 4.418521e-03 3.563722e-02
 2.387866e-03 1.442756e-02 1.439371e-02 -1.933735e-02
4.750000e+09 1.715331e-02 -2.095308e-02 5.101555e-03 3.761616e-02 -8.820106e-04 7.834670e-03 1.305245e-02 7.050511e-02
 1.585213e-04 1.586793e-02 9.625285e-01 -1.342654e-01
 5.101555e-03 3.761616e-02 1.385848e-02 -2.051909e-02 2.639273e-03 1.519094e-02 9.625278e-01 -1.342672e-01
 9.032021e-04 7.517001e-03 1.138824e-02 7.118516e-02
 -8.820106e-04 7.834670e-03 2.639273e-03 1.519094e-02 9.969598e-01 -5.797651e-02 1.587195e-04 1.586967e-02
 -1.412828e-04 1.524083e-04 9.030871e-04 7.515872e-03
 1.305245e-02 7.050511e-02 9.625278e-01 -1.342672e-01 1.587195e-04 1.586967e-02 1.715219e-02 -2.095322e-02
 -8.815672e-04 7.835457e-03 5.101704e-03 3.761669e-02
 1.585213e-04 1.586793e-02 9.032021e-04 7.517001e-03 -1.412828e-04 1.524083e-04 -8.815672e-04 7.835457e-03
 9.969601e-01 -5.797566e-02 2.638941e-03 1.518940e-02
 9.625285e-01 -1.342654e-01 1.138824e-02 7.118516e-02 9.030871e-04 7.515872e-03 5.101704e-03 3.761669e-02
 2.638941e-03 1.518940e-02 1.385985e-02 -2.051955e-02
5.000000e+09 1.690034e-02 -2.222072e-02 5.826862e-03 3.958049e-02 -9.726533e-04 8.274925e-03 1.433490e-02 7.407178e-02
 1.673562e-04 1.670257e-02 9.607892e-01 -1.409254e-01
 5.826862e-03 3.958049e-02 1.327655e-02 -2.169649e-02 2.902521e-03 1.594841e-02 9.607884e-01 -1.409274e-01
 9.971515e-04 7.910886e-03 1.249426e-02 7.480318e-02
 -9.726533e-04 8.274925e-03 2.902521e-03 1.594841e-02 9.967133e-01 -6.098026e-02 1.675751e-04 1.670437e-02
 -1.670675e-04 1.567677e-04 9.970265e-04 7.909704e-03
 1.433490e-02 7.407178e-02 9.607884e-01 -1.409274e-01 1.675751e-04 1.670437e-02 1.689921e-02 -2.222080e-02
 -9.721650e-04 8.275740e-03 5.827085e-03 3.958095e-02
 1.673562e-04 1.670257e-02 9.971515e-04 7.910886e-03 -1.670675e-04 1.567677e-04 -9.721650e-04 8.275740e-03
 9.967135e-01 -6.097936e-02 2.902142e-03 1.594680e-02
 9.607892e-01 -1.409254e-01 1.249426e-02 7.480318e-02 9.970265e-04 7.909704e-03 5.827085e-03 3.958095e-02
 2.902142e-03 1.594680e-02 1.327784e-02 -2.169698e-02
5.250000e+09 1.661434e-02 -2.349015e-02 6.593629e-03 4.152871e-02 -1.067447e-03 8.719110e-03 1.567809e-02 7.762705e-02
 1.761715e-04 1.753785e-02 9.589888e-01 -1.475626e-01
 6.593629e-03 4.152871e-02 1.264686e-02 -2.286737e-02 3.177893e-03 1.670130e-02 9.589880e-01 -1.475646e-01
 1.096141e-03 8.304801e-03 1.365113e-02 7.841208e-02
 -1.067447e-03 8.719110e-03 3.177893e-03 1.670130e-02 9.964576e-01 -6.398344e-02 1.764101e-04 1.753973e-02
 -1.943271e-04 1.609522e-04 1.096004e-03 8.303562e-03
 1.567809e-02 7.762705e-02 9.589880e-01 -1.475646e-01 1.764101e-04 1.753973e-02 1.661322e-02 -2.349015e-02
 -1.066915e-03 8.719949e-03 6.593906e-03 4.152908e-02
 1.761715e-04 1.753785e-02 1.096141e-03 8.304801e-03 -1.943271e-04 1.609522e-04 -1.066915e-03 8.719949e-03
 9.964579e-01 -6.398250e-02 3.177466e-03 1.669960e-02
 9.589888e-01 -1.475626e-01 1.365113e-02 7.841208e-02 1.096004e-03 8.303562e-03 6.593906e-03 4.152908e-02
 3.177466e-03 1.669960e-02 1.264806e-02 -2.286788e-02
5.500000e+09 1.629568e-02 -2.476001e-02 7.401175e-03 4.345994e-02 -1.166363e-03 9.167427e-03 1.708261e-02 8.117038e-02
 1.849501e-04 1.837386e-02 9.571268e-01 -1.541778e-01
 7.401175e-03 4.345994e-02 1.196979e-02 -2.403009e-02 3.465383e-03 1.744944e-02 9.571260e-01 -1.541799e-01
 1.200245e-03 8.698746e-03 1.485929e-02 8.201151e-02
 -1.166363e-03 9.167427e-03 3.465383e-03 1.744944e-02 9.961928e-01 -6.698632e-02 1.852081e-04 1.837581e-02
 -2.230791e-04 1.649627e-04 1.200092e-03 8.697447e-03
 1.708261e-02 8.117038e-02 9.571260e-01 -1.541799e-01 1.852081e-04 1.837581e-02 1.629458e-02 -2.475994e-02
 -1.165789e-03 9.168286e-03 7.401482e-03 4.346022e-02
 1.849501e-04 1.837386e-02 1.200245e-03 8.698746e-03 -2.230791e-04 1.649627e-04 -1.165789e-03 9.168286e-03
 9.961931e-01 -6.698533e-02 3.464907e-03 1.744766e-02
 9.571268e-01 -1.541778e-01 1.485929e-02 8.201151e-02 1.200092e-03 8.697447e-03 7.401482e-03 4.346022e-02
 3.464907e-03 1.744766e-02 1.197090e-02 -2.403059e-02
5.750000e+09 1.594470e-02 -2.602904e-02 8.248880e-03 4.537340e-02 -1.269367e-03 9.620083e-03 1.854903e-02 8.470118e-02
 1.936751e-04 1.921065e-02 9.552027e-01 -1.607717e-01
 8.248880e-03 4.537340e-02 1.124575e-02 -2.518307e-02 3.764987e-03 1.819267e-02 9.552018e-01 -1.607739e-01
 1.309541e-03 9.092719e-03 1.611914e-02 8.560108e-02
 -1.269367e-03 9.620083e-03 3.764987e-03 1.819267e-02 9.959188e-01 -6.998911e-02 1.939525e-04 1.921267e-02
 -2.533443e-04 1.687966e-04 1.309369e-03 9.091359e-03
 1.854903e-02 8.470118e-02 9.552018e-01 -1.607739e-01 1.939525e-04 1.921267e-02 1.594366e-02 -2.602890e-02
 -1.268752e-03 9.620960e-03 8.249193e-03 4.537358e-02
 1.936751e-04 1.921065e-02 1.309541e-03 9.092719e-03 -2.533443e-04 1.687966e-04 -1.268752e-03 9.620960e-03
 9.959191e-01 -6.998808e-02 3.764460e-03 1.819081e-02
 9.552027e-01 -1.607717e-01 1.611914e-02 8.560108e-02 1.309369e-03 9.091359e-03 8.249193e-03 4.537358e-02
 3.764460e-03 1.819081e-02 1.124679e-02 -2.518353e-02
6.000000e+09 1.556178e-02 -2.729601e-02 9.136181e-03 4.726830e-02 -1.376421e-03 1.007729e-02 2.007785e-02 8.821882e-02
 2.023296e-04 2.004828e-02 9.532160e-01 -1.673447e-01
 9.136181e-03 4.726830e-02 1.047516e-02 -2.632479e-02 4.076697e-03 1.893081e-02 9.532150e-01 -1.673469e-01
 1.424108e-03 9.486714e-03 1.743103e-02 8.918041e-02
 -1.376421e-03 1.007729e-02 4.076697e-03 1.893081e-02 9.956355e-01 -7.299198e-02 2.026268e-04 2.005037e-02
 -2.851460e-04 1.724479e-04 1.423913e-03 9.485291e-03
 2.007785e-02 8.821882e-02 9.532150e-01 -1.673469e-01 2.026268e-04 2.005037e-02 1.556082e-02 -2.729581e-02
 -1.375766e-03 1.007818e-02 9.136477e-03 4.726839e-02
 2.023296e-04 2.004828e-02 1.424108e-03 9.486714e-03 -2.851460e-04 1.724479e-04 -1.375766e-03 1.007818e-02
 9.956358e-01 -7.299090e-02 4.076120e-03 1.892888e-02
 9.532160e-01 -1.673447e-01 1.743103e-02 8.918041e-02 1.423913e-03 9.485291e-03 9.136477e-03 4.726839e-02
 4.076120e-03 1.892888e-02 1.047615e-02 -2.632519e-02
6.250000e+09 1.514729e-02 -2.855976e-02 1.006256e-02 4.914392e-02 -1.487480e-03 1.053925e-02 2.166954e-02 9.172264e-02
 2.108966e-04 2.088680e-02 9.511660e-01 -1.738970e-01
 1.006256e-02 4.914392e-02 9.658430e-03 -2.745376e-02 4.400507e-03 1.966368e-02 9.511650e-01 -1.738993e-01
 1.544028e-03 9.880725e-03 1.879528e-02 9.274904e-02
 -1.487480e-03 1.053925e-02 4.400507e-03 1.966368e-02 9.953428e-01 -7.599506e-02 2.112139e-04 2.088897e-02
 -3.185101e-04 1.759074e-04 1.543807e-03 9.879239e-03
 2.166954e-02 9.172264e-02 9.511650e-01 -1.738993e-01 2.112139e-04 2.088897e-02 1.514641e-02 -2.855951e-02
 -1.486789e-03 1.054016e-02 1.006282e-02 4.914392e-02
 2.108966e-04 2.088680e-02 1.544028e-03 9.880725e-03 -3.185101e-04 1.759074e-04 -1.486789e-03 1.054016e-02
 9.953431e-01 -7.599394e-02 4.399878e-03 1.966168e-02
 9.511660e-01 -1.738970e-01 1.879528e-02 9.274904e-02 1.543807e-03 9.879239e-03 1.006282e-02 4.914392e-02
 4.399878e-03 1.966168e-02 9.659379e-03 -2.745409e-02
6.500000e+09 1.470156e-02 -2.981916e-02 1.102754e-02 5.099952e-02 -1.602498e-03 1.100620e-02 2.332453e-02 9.521196e-02
 2.193580e-04 2.172627e-02 9.490522e-01 -1.804287e-01
 1.102754e-02 5.099952e-02 8.795961e-03 -2.856853e-02 4.736407e-03 2.039107e-02 9.490511e-01 -1.804311e-01
 1.669387e-03 1.027474e-02 2.021217e-02 9.630656e-02
 -1.602498e-03 1.100620e-02 4.736407e-03 2.039107e-02 9.950407e-01 -7.899844e-02 2.196959e-04 2.172850e-02
 -3.534647e-04 1.791627e-04 1.669135e-03 1.027319e-02
 2.332453e-02 9.521196e-02 9.490511e-01 -1.804311e-01 2.196959e-04 2.172850e-02 1.470078e-02 -2.981888e-02
 -1.601773e-03 1.100711e-02 1.102774e-02 5.099944e-02
 2.193580e-04 2.172627e-02 1.669387e-03 1.027474e-02 -3.534647e-04 1.791627e-04 -1.601773e-03 1.100711e-02
 9.950410e-01 -7.899727e-02 4.735727e-03 2.038900e-02
 9.490522e-01 -1.804287e-01 2.021217e-02 9.630656e-02 1.669135e-03 1.027319e-02 1.102774e-02 5.099944e-02
 4.735727e-03 2.038900e-02 8.796902e-03 -2.856878e-02
6.750000e+09 1.422494e-02 -3.107309e-02 1.203066e-02 5.283439e-02 -1.721422e-03 1.147833e-02 2.504323e-02 9.868611e-02
 2.276949e-04 2.256672e-02 9.468742e-01 -1.869400e-01
 1.203066e-02 5.283439e-02 7.888147e-03 -2.966765e-02 5.084386e-03 2.111279e-02 9.468730e-01 -1.869423e-01
 1.800272e-03 1.066874e-02 2.168197e-02 9.985251e-02
 -1.721422e-03 1.147833e-02 5.084386e-03 2.111279e-02 9.947289e-01 -8.200216e-02 2.280538e-04 2.256902e-02
 -3.900402e-04 1.821981e-04 1.799986e-03 1.066714e-02
 2.504323e-02 9.868611e-02 9.468730e-01 -1.869423e-01 2.280538e-04 2.256902e-02 1.422426e-02 -3.107280e-02
 -1.720664e-03 1.147926e-02 1.203078e-02 5.283425e-02
 2.276949e-04 2.256672e-02 1.800272e-03 1.066874e-02 -3.900402e-04 1.821981e-04 -1.720664e-03 1.147926e-02
 9.947292e-01 -8.200095e-02 5.083654e-03 2.111064e-02
 9.468742e-01 -1.869400e-01 2.168197e-02 9.985251e-02 1.799986e-03 1.066714e-02 1.203078e-02 5.283425e-02
 5.083654e-03 2.111064e-02 7.889109e-03 -2.966782e-02
7.000000e+09 1.371774e-02 -3.232045e-02 1.307150e-02 5.464784e-02 -1.844194e-03 1.195588e-02 2.682598e-02 1.021444e-01
 2.358867e-04 2.340819e-02 9.446312e-01 -1.934304e-01
 1.307150e-02 5.464784e-02 6.935375e-03 -3.074969e-02 5.444431e-03 2.182860e-02 9.446300e-01 -1.934329e-01
 1.936773e-03 1.106272e-02 2.320490e-02 1.033864e-01
 -1.844194e-03 1.195588e-02 5.444431e-03 2.182860e-02 9.944073e-01 -8.500623e-02 2.362670e-04 2.341057e-02
 -4.282687e-04 1.849951e-04 1.936450e-03 1.106105e-02
 2.682598e-02 1.021444e-01 9.446300e-01 -1.934329e-01 2.362670e-04 2.341057e-02 1.371717e-02 -3.232015e-02
 -1.843406e-03 1.195682e-02 1.307153e-02 5.464764e-02
 2.358867e-04 2.340819e-02 1.936773e-03 1.106272e-02 -4.282687e-04 1.849951e-04 -1.843406e-03 1.195682e-02
 9.944077e-01 -8.500497e-02 5.443645e-03 2.182638e-02